/*--------------------------------*- C++ -*----------------------------------*\
| =========                 |                                                 |
| \\      /  F ield         | OpenFOAM: The Open Source CFD Toolbox           |
|  \\    /   O peration     | Version:  2.4.x                                 |
|   \\  /    A nd           | Web:      www.OpenFOAM.org                      |
|    \\/     M anipulation  |                                                 |
\*---------------------------------------------------------------------------*/
FoamFile
{
    version     2.0;
    format      ascii;
    class       volScalarField;
    location    "0";
    object      T;
}
// * * * * * * * * * * * * * * * * * * * * * * * * * * * * * * * * * * * * * //

dimensions      [0 0 0 1 0 0 0];

internalField   nonuniform List<scalar> 
101
(
300
327
354
381
408
435
462
489
516
543
570
597
624
651
678
705
732
759
786
813
840
867
894
921
948
975
1002
1029
1056
1083
1110
1137
1164
1191
1218
1245
1272
1299
1326
1353
1380
1407
1434
1461
1488
1515
1542
1569
1596
1623
1650
1677
1704
1731
1758
1785
1812
1839
1866
1893
1920
1947
1974
2001
2028
2055
2082
2109
2136
2163
2190
2217
2244
2271
2298
2325
2352
2379
2406
2433
2460
2487
2514
2541
2568
2595
2622
2649
2676
2703
2730
2757
2784
2811
2838
2865
2892
2919
2946
2973
3000
)
;
boundaryField
{
    wall
    {
        type            empty;
    }
    inlet
    {
        type            empty;
    }
    outlet
    {
        type            empty;
    }
    frontAndBack
    {
        type            empty;
    }
}


// ************************************************************************* //
